# vtk DataFile Version 3.0
Output from R2
ASCII
DATASET UNSTRUCTURED_GRID
POINTS       2934 double
     0.00000     0.00000   0.
     0.50000     0.00000   0.
     1.00000     0.00000   0.
     1.50000     0.00000   0.
     2.00000     0.00000   0.
     2.50000     0.00000   0.
     3.00000     0.00000   0.
     3.50000     0.00000   0.
     4.00000     0.00000   0.
     4.50000     0.00000   0.
     5.00000     0.00000   0.
     5.50000     0.00000   0.
     6.00000     0.00000   0.
     6.50000     0.00000   0.
     7.00000     0.00000   0.
     7.50000     0.00000   0.
     8.00000     0.00000   0.
     8.50000     0.00000   0.
     9.00000     0.00000   0.
     9.50000     0.00000   0.
    10.00000     0.00000   0.
    10.50000     0.00000   0.
    11.00000     0.00000   0.
    11.50000     0.00000   0.
    12.00000     0.00000   0.
    12.50000     0.00000   0.
    13.00000     0.00000   0.
    13.50000     0.00000   0.
    14.00000     0.00000   0.
    14.50000     0.00000   0.
    15.00000     0.00000   0.
    15.50000     0.00000   0.
    16.00000     0.00000   0.
    16.50000     0.00000   0.
    17.00000     0.00000   0.
    17.50000     0.00000   0.
    18.00000     0.00000   0.
    18.50000     0.00000   0.
    19.00000     0.00000   0.
    19.50000     0.00000   0.
    20.00000     0.00000   0.
    20.50000     0.00000   0.
    21.00000     0.00000   0.
    21.50000     0.00000   0.
    22.00000     0.00000   0.
    22.50000     0.00000   0.
    23.00000     0.00000   0.
    23.50000     0.00000   0.
    24.00000     0.00000   0.
    24.50000     0.00000   0.
    25.00000     0.00000   0.
    25.50000     0.00000   0.
    26.00000     0.00000   0.
    26.50000     0.00000   0.
    27.00000     0.00000   0.
    27.50000     0.00000   0.
    28.00000     0.00000   0.
    28.50000     0.00000   0.
    29.00000     0.00000   0.
    29.50000     0.00000   0.
    30.00000     0.00000   0.
    30.50000     0.00000   0.
    31.00000     0.00000   0.
    31.50000     0.00000   0.
    32.00000     0.00000   0.
    32.50000     0.00000   0.
    33.00000     0.00000   0.
    33.50000     0.00000   0.
    34.00000     0.00000   0.
    34.50000     0.00000   0.
    35.00000     0.00000   0.
    35.50000     0.00000   0.
    36.00000     0.00000   0.
    36.50000     0.00000   0.
    37.00000     0.00000   0.
    37.50000     0.00000   0.
    38.00000     0.00000   0.
    38.50000     0.00000   0.
    39.00000     0.00000   0.
    39.50000     0.00000   0.
    40.00000     0.00000   0.
    40.50000     0.00000   0.
    41.00000     0.00000   0.
    41.50000     0.00000   0.
    42.00000     0.00000   0.
    42.50000     0.00000   0.
    43.00000     0.00000   0.
    43.50000     0.00000   0.
    44.00000     0.00000   0.
    44.50000     0.00000   0.
    45.00000     0.00000   0.
    45.50000     0.00000   0.
    46.00000     0.00000   0.
    46.50000     0.00000   0.
    47.00000     0.00000   0.
    47.50000     0.00000   0.
    48.00000     0.00000   0.
    48.50000     0.00000   0.
    49.00000     0.00000   0.
    49.50000     0.00000   0.
    50.00000     0.00000   0.
    50.50000     0.00000   0.
    51.00000     0.00000   0.
    51.50000     0.00000   0.
    52.00000     0.00000   0.
    52.50000     0.00000   0.
    53.00000     0.00000   0.
    53.50000     0.00000   0.
    54.00000     0.00000   0.
    54.50000     0.00000   0.
    55.00000     0.00000   0.
    55.50000     0.00000   0.
    56.00000     0.00000   0.
    56.50000     0.00000   0.
    57.00000     0.00000   0.
    57.50000     0.00000   0.
    58.00000     0.00000   0.
    58.50000     0.00000   0.
    59.00000     0.00000   0.
    59.50000     0.00000   0.
     0.81000    -5.00000   0.
     2.46000    -5.00000   0.
     4.12000    -5.00000   0.
     5.77000    -5.00000   0.
     7.42000    -5.00000   0.
     9.08000    -5.00000   0.
    10.73000    -5.00000   0.
    12.38000    -5.00000   0.
    14.04000    -5.00000   0.
    15.69000    -5.00000   0.
    17.35000    -5.00000   0.
    19.00000    -5.00000   0.
    20.65000    -5.00000   0.
    22.31000    -5.00000   0.
    23.96000    -5.00000   0.
    25.62000    -5.00000   0.
    27.27000    -5.00000   0.
    28.92000    -5.00000   0.
    30.58000    -5.00000   0.
    32.23000    -5.00000   0.
    33.88000    -5.00000   0.
    35.54000    -5.00000   0.
    37.19000    -5.00000   0.
    38.85000    -5.00000   0.
    40.50000    -5.00000   0.
    42.15000    -5.00000   0.
    43.81000    -5.00000   0.
    45.46000    -5.00000   0.
    47.12000    -5.00000   0.
    48.77000    -5.00000   0.
    50.42000    -5.00000   0.
    52.08000    -5.00000   0.
    53.73000    -5.00000   0.
    55.38000    -5.00000   0.
    57.04000    -5.00000   0.
    58.69000    -5.00000   0.
     0.16667     0.00000   0.
     0.33333     0.00000   0.
     0.66667     0.00000   0.
     0.83333     0.00000   0.
     1.16667     0.00000   0.
     1.33333     0.00000   0.
     1.66667     0.00000   0.
     1.83333     0.00000   0.
     2.16667     0.00000   0.
     2.33333     0.00000   0.
     2.66667     0.00000   0.
     2.83333     0.00000   0.
     3.16667     0.00000   0.
     3.33333     0.00000   0.
     3.66667     0.00000   0.
     3.83333     0.00000   0.
     4.16667     0.00000   0.
     4.33333     0.00000   0.
     4.66667     0.00000   0.
     4.83333     0.00000   0.
     5.16667     0.00000   0.
     5.33333     0.00000   0.
     5.66667     0.00000   0.
     5.83333     0.00000   0.
     6.16667     0.00000   0.
     6.33333     0.00000   0.
     6.66667     0.00000   0.
     6.83333     0.00000   0.
     7.16667     0.00000   0.
     7.33333     0.00000   0.
     7.66667     0.00000   0.
     7.83333     0.00000   0.
     8.16667     0.00000   0.
     8.33333     0.00000   0.
     8.66667     0.00000   0.
     8.83333     0.00000   0.
     9.16667     0.00000   0.
     9.33333     0.00000   0.
     9.66667     0.00000   0.
     9.83333     0.00000   0.
    10.16667     0.00000   0.
    10.33333     0.00000   0.
    10.66667     0.00000   0.
    10.83333     0.00000   0.
    11.16667     0.00000   0.
    11.33333     0.00000   0.
    11.66667     0.00000   0.
    11.83333     0.00000   0.
    12.16667     0.00000   0.
    12.33333     0.00000   0.
    12.66667     0.00000   0.
    12.83333     0.00000   0.
    13.16667     0.00000   0.
    13.33333     0.00000   0.
    13.66667     0.00000   0.
    13.83333     0.00000   0.
    14.16667     0.00000   0.
    14.33333     0.00000   0.
    14.66667     0.00000   0.
    14.83333     0.00000   0.
    15.16667     0.00000   0.
    15.33333     0.00000   0.
    15.66667     0.00000   0.
    15.83333     0.00000   0.
    16.16667     0.00000   0.
    16.33333     0.00000   0.
    16.66667     0.00000   0.
    16.83333     0.00000   0.
    17.16667     0.00000   0.
    17.33333     0.00000   0.
    17.66667     0.00000   0.
    17.83333     0.00000   0.
    18.16667     0.00000   0.
    18.33333     0.00000   0.
    18.66667     0.00000   0.
    18.83333     0.00000   0.
    19.16667     0.00000   0.
    19.33333     0.00000   0.
    19.66667     0.00000   0.
    19.83333     0.00000   0.
    20.16667     0.00000   0.
    20.33333     0.00000   0.
    20.66667     0.00000   0.
    20.83333     0.00000   0.
    21.16667     0.00000   0.
    21.33333     0.00000   0.
    21.66667     0.00000   0.
    21.83333     0.00000   0.
    22.16667     0.00000   0.
    22.33333     0.00000   0.
    22.66667     0.00000   0.
    22.83333     0.00000   0.
    23.16667     0.00000   0.
    23.33333     0.00000   0.
    23.66667     0.00000   0.
    23.83333     0.00000   0.
    24.16667     0.00000   0.
    24.33333     0.00000   0.
    24.66667     0.00000   0.
    24.83333     0.00000   0.
    25.16667     0.00000   0.
    25.33333     0.00000   0.
    25.66667     0.00000   0.
    25.83333     0.00000   0.
    26.16667     0.00000   0.
    26.33333     0.00000   0.
    26.66667     0.00000   0.
    26.83333     0.00000   0.
    27.16667     0.00000   0.
    27.33333     0.00000   0.
    27.66667     0.00000   0.
    27.83333     0.00000   0.
    28.16667     0.00000   0.
    28.33333     0.00000   0.
    28.66667     0.00000   0.
    28.83333     0.00000   0.
    29.16667     0.00000   0.
    29.33333     0.00000   0.
    29.66667     0.00000   0.
    29.83333     0.00000   0.
    30.16667     0.00000   0.
    30.33333     0.00000   0.
    30.66667     0.00000   0.
    30.83333     0.00000   0.
    31.16667     0.00000   0.
    31.33333     0.00000   0.
    31.66667     0.00000   0.
    31.83333     0.00000   0.
    32.16667     0.00000   0.
    32.33333     0.00000   0.
    32.66667     0.00000   0.
    32.83333     0.00000   0.
    33.16667     0.00000   0.
    33.33333     0.00000   0.
    33.66667     0.00000   0.
    33.83333     0.00000   0.
    34.16667     0.00000   0.
    34.33333     0.00000   0.
    34.66667     0.00000   0.
    34.83333     0.00000   0.
    35.16667     0.00000   0.
    35.33333     0.00000   0.
    35.66667     0.00000   0.
    35.83333     0.00000   0.
    36.16667     0.00000   0.
    36.33333     0.00000   0.
    36.66667     0.00000   0.
    36.83333     0.00000   0.
    37.16667     0.00000   0.
    37.33333     0.00000   0.
    37.66667     0.00000   0.
    37.83333     0.00000   0.
    38.16667     0.00000   0.
    38.33333     0.00000   0.
    38.66667     0.00000   0.
    38.83333     0.00000   0.
    39.16667     0.00000   0.
    39.33333     0.00000   0.
    39.66667     0.00000   0.
    39.83333     0.00000   0.
    40.16667     0.00000   0.
    40.33333     0.00000   0.
    40.66667     0.00000   0.
    40.83333     0.00000   0.
    41.16667     0.00000   0.
    41.33333     0.00000   0.
    41.66667     0.00000   0.
    41.83333     0.00000   0.
    42.16667     0.00000   0.
    42.33333     0.00000   0.
    42.66667     0.00000   0.
    42.83333     0.00000   0.
    43.16667     0.00000   0.
    43.33333     0.00000   0.
[...]
POINT_DATA      2934
CELL_DATA      5409
SCALARS Resistivity(ohm.m) double 1
LOOKUP_TABLE default
             7.45961             0.75134            15.18534            22.70234            10.33033            20.08501             2.14246             1.06986             0.73969             0.74969            21.77000             1.15914            15.63854            25.37668             0.85406             1.20847            17.25331             4.27490             0.79738            20.86386             7.26096            20.07825            36.19141             1.12913             1.12565             0.92668             1.81958            22.60116            17.85398            19.42440             4.32229             1.12584            23.11115             0.75293             3.30598            16.17967             7.90452             1.56391             6.21680             7.56593            10.49917             1.01745             0.87854             3.65916            20.50846            11.07894            13.07922            10.10732             2.13611            20.07425            20.12552            28.36142             9.08764            15.65339            19.24765            17.43263             0.82378            22.58077             3.91411            14.74556             0.79373            19.14782             1.04366             7.40268             1.72099            19.97853             4.62076             2.98927             0.89667            13.40473             0.86758            18.52652             3.17251             2.21429             4.67420             0.75165             3.78922            15.17064            20.57074            20.79964            14.33504            15.93908            11.11567            16.80141             1.09331             2.74946             3.88290             3.44368             1.02503            16.43034            19.26949             3.81810             4.33865             6.07146            12.65405             1.80067             6.64191             0.75612            20.19616             1.11084             1.04967             2.05329             1.11052            23.71727             4.06458            24.14943             1.24465             0.87684            28.55652             0.73581             0.75794             2.36015             2.29219             2.51892             1.21979             1.07887            19.88870             8.55016             1.07656             1.14379             4.78872            19.51849            13.89178             1.90286            15.89261            12.36733            23.02589             2.37323             3.49052             0.73275            21.49972            17.75918             4.51940             1.15775            12.59476            12.81737             0.77450             0.78421             0.85985            10.53415            13.73278             2.60916            18.02963            19.11233            16.15798            20.07494             0.74403            17.08207             4.01574            15.67528             1.22050             4.57629             7.14460             1.01085             4.64212            25.24872             3.54952            22.79313            24.06092             1.18449             4.65509             1.09809             0.89257            19.24229             8.33929             1.00760             1.12475            22.84985             2.56169             1.22978             0.83666             8.95070            18.77568             1.76184             1.77440             1.77090             1.88626             1.53148             1.04404             1.69606             1.16392             2.37555            20.31584             1.57948             1.12047             1.44174            22.78751            14.94233            21.11754            13.41462             3.44206            19.20481            24.49586             1.12534             7.91637             9.41989            23.08277            16.67356            12.32197            11.46120            11.03083            10.85878             3.52621             3.20618             2.99213            15.27090            16.78037            20.87649             1.99364            21.55493            13.96546            14.53712            21.74798            18.16199            16.85552             1.22874             6.59602             2.26071             1.24133             0.90012             7.36547             6.70460            11.84850            10.30656             0.90430             2.81881             2.94882             1.26502             1.31044             2.20851             4.98747            14.22786            13.67887            12.09778            12.21138             1.38986            18.01039             1.39568             2.92544            12.37113            11.15707             9.08897             3.02141             3.42777             1.93417             6.72737             1.16964            16.51325             2.43811             1.39281            18.67529             7.58998             7.22636             1.21384            24.87820            22.77709             6.54916             1.40185            11.18536            16.81314             9.24154             2.56729             2.96108             0.90984            15.62489             2.19424             8.75699            14.16551            24.99620            19.20155             3.83553             0.75640             8.10428             6.05318            18.56700             2.82708            23.40183             7.33909             1.02517             5.25221             2.18555             1.13061            14.47475             8.68055             3.46792             8.57194            22.44814             2.57401             1.19011            16.69538             1.21359             1.78026             6.80235             4.07764            20.73865            17.63005            16.70957             2.33654             0.75091            12.25687            20.97997             6.25768             6.86736            24.50756            23.38725            15.02065             0.75481            23.89019             1.04808            15.35370             1.00822            29.28984            21.03698             1.25405            19.05304             2.46255            19.91827             3.32292            19.42727            13.59134            19.29203             9.72412            19.56665            17.95229             1.32107            19.94499             0.83590             3.80259            15.41581            13.92564            20.10776             0.75636            28.78697            15.65561             8.17408             6.94374             1.29433             1.09825             0.90104            13.85832             1.04696            30.28599             1.61458             2.98362             3.17287            22.66116             4.97155             1.04618             1.02392             2.05608            28.53824             1.09589            25.42158             2.39560            18.39789             1.40776             1.01950             0.91528             1.08264             0.82628             1.67704             2.01870             1.07036             0.85274             0.91551             1.11614             2.91859             2.71510             2.39450             3.81968             1.00750             1.08596            23.16610            25.57814             2.43980             9.61988             1.17613            16.28639            11.54064             2.98152            17.87375            21.59548            18.72274            16.13506             0.77671            15.71368             2.45821             2.65611             5.02925            18.59854             2.12610             8.53116             8.96501             4.08664            10.61088            11.66080            18.66442             1.05998            19.38750            22.15080             1.39404             1.26009             1.04422            16.26303            12.90053             6.78779            17.86554            14.89652            15.60424             0.75038            13.47780            18.81738            19.17782            15.93568             1.05063             1.86890             0.87239             1.07307             9.86408             1.02790            20.21063             8.13664             7.77379             0.92144             4.30442            21.27783             0.99977            10.40344            16.38066             1.06893             0.99632             5.87899             6.56946            16.43336             1.65520             1.06167             3.01798            21.15751            21.03509             2.00020            15.22882            12.12629            31.35355             3.43576            18.90894             6.43547            23.19414            13.57817             2.13443            25.90200             1.02473            18.43853            21.43677             2.86096            19.93856            17.22762            19.38674             8.78422            16.97938            17.47409             9.62603             9.54928             3.12281             1.81240            13.95376            16.94755            15.72685            29.42395             1.00250             1.30580             1.28819            16.45885             1.18966            16.31429             1.04124            24.06582            13.03905            21.31959            20.18977             8.68381             5.09320            29.03678            20.26776             9.64699            23.62904             3.10045             1.10038             5.45237            14.28533             6.16699             6.77028             2.05084             0.88247             1.21959            23.24946            16.51726            17.32755             1.15686             3.33218            17.21454            20.48449            17.74218             1.79029             1.49117            15.78906             1.07968            22.01613             1.80535            19.25498            14.14900            14.52489             1.93104             1.04191             1.28759             0.92282             8.03961            22.39991             4.21445             2.83759             1.04600             1.03540             3.82824             0.80123            16.88435             1.30842             9.01386             1.06161             1.58941            16.07996            10.27442             2.28363            18.16006             1.38755             1.41854             3.55715            10.23281             4.38456            11.24481            19.83399             1.89972            17.34289            11.60496            11.29646            10.97646             9.59806             3.40129            16.69520            23.12289            15.66396            16.08650             3.22738             0.94991             1.47475             4.68853             3.77212             8.88608             2.44375             2.95222             3.79918            10.50145             1.03289             1.19862             1.07414             9.99764            16.26725             1.45817             3.75900            11.22270            14.33153             3.51466             3.21554             6.68260             4.61237             1.21624             4.24005             8.06671            28.79285            13.69981             7.23059             2.00574             0.93660             1.16926            18.81517            16.88970            14.82259            25.82453            18.43577             0.72942             2.68788             1.74841             1.17885             1.10323             3.39474             1.14916             1.01806             2.27969            16.58270            17.78777             0.84997             2.40623             1.18834             1.14407             3.14051             7.64301             1.62152             9.93262            13.52650            15.65776            17.12076             2.82873            22.71302             0.91449             0.91171             2.85473            18.74986             2.67152            13.55622             7.56951            21.26226            11.63249             0.77033            20.72120            23.72461             1.20239             2.25191             2.84890            12.84449             3.67245             1.45719             1.05301            17.63404             7.98464             1.07293             1.03862             1.42263             0.95408             0.86983            13.49094            10.41088             1.08619             2.10963             1.48612            21.99591            26.99942            17.87313             1.10702            19.01631            17.57604             3.98764            13.73337            17.79693            20.01095            17.38282             8.05049            16.01337            19.37400            16.56246             0.85094             1.66223            13.55033            22.91448             3.71802            16.23575            14.26410            19.34875            18.55291             6.49576            11.47317            14.53513             0.82189             1.52394             8.19330             1.11392            15.97967            19.53653             1.67611             1.79701            15.41475            11.78347             1.09032             3.89370            20.09829             2.39849            17.83184            11.14425            14.49027             8.97156             9.85890            12.79343             1.90453            14.77724            12.88332            13.49434             1.09750             2.91792            22.79537            17.85336             1.13717             1.02361            21.18951             1.62323            11.14133             1.32241            17.26932             2.54107            27.43507             3.98390             3.33670             0.87179             1.41510            11.96595             1.83589             9.69993             6.11319             6.26613            18.92615            15.88113            17.82553             0.82344            21.19874            17.21298             1.01070             1.63181            11.09590            16.87567            12.49255             1.19671             9.17554             4.26376            13.54310             3.89821             1.00296            17.55062            13.64457             1.49105             1.61687            23.26171             1.03151            13.72016            16.55821             1.25058             1.51454            21.61881             8.44489            13.23940             5.12395             1.91345            15.29828             3.68469            21.02560             1.34495            15.14914             2.94276             7.85742             9.59842            14.91184            17.91917             6.49012            14.64601            14.73686             2.05201             0.92357             8.08551            13.64010             0.88609             7.77156            10.70993            13.00588            18.53273             2.36081             1.10286             0.96776             2.75725             1.26295             0.77912            21.44937            19.61085            13.34290             4.64753             1.29244            16.94679            13.91428             4.82513            14.61170             8.55018             1.04500            14.31812             3.26821            19.18212             1.04239            10.67366             6.79556            10.95857             1.41615             1.24862             0.94544             0.90938            13.72419             2.24630            24.16057            14.98879             1.06906             1.06115             1.05787            18.33974             2.24839             1.93998             1.35021             1.02134             1.10277             0.80833             1.42729            11.13355            24.46784            11.01181             1.06082             1.00737             1.06806             1.52612            13.39278            14.60801             3.31881             3.44196            21.03015             0.75570             1.73751            15.38286             1.06316            18.85821            21.27105            20.60157            12.50344             0.75836            18.89064             0.96075            11.34320             9.72572             0.82586            19.03883            15.47155            22.38209             1.45982             0.80458            17.48171            22.63469            15.21852            17.41265             1.11193             0.76979            17.22056            16.86082             8.23500             8.44308             7.20243            11.58204             0.96722             9.88900             7.83688            23.98065             2.57867            12.77384            15.46043             9.21650             1.87355             8.09038            17.85932             8.75854            20.06151             1.52449            14.69184            11.22539            12.07133             7.56953             2.96659            10.46006            21.20179             5.53776            11.42248             4.74238            10.21146             8.14551            12.38967            21.46471             1.00947            14.86218            14.00076            17.40966            13.68978            23.10686            21.90509             9.65908             2.04828             2.62940            10.69457            19.08144             1.26541            20.63814             1.09505             4.84157             1.11345            11.00507             1.19888             2.79954            10.15692             1.39605             4.46022            17.07673             0.89978             0.76179            10.49298             3.20405            13.19377            12.48020             9.44715             3.08491            10.26387             2.31533             8.87212            15.70049             9.93190             0.77307             8.69260             1.42035             1.01983             7.13802             1.02387             1.11502             8.08306             4.18191             9.57113             5.15335             1.55735            14.65754             7.51360            25.35188             9.33560             6.62787            13.00686             9.76604            11.19361            10.36772            11.07058             9.02192             7.60116             9.27559             1.56378             1.61247             0.95657             2.33733             1.58701             1.38142             1.58570             1.04567             1.11936             1.67318             1.99947             8.67312             7.49043            13.09585             5.20493             8.78375             5.81910            12.76330             1.08123            15.65221             3.30199             9.26536             5.65746             7.59144             9.99425             1.92294             6.16885            14.92471            13.80726            14.26761             5.99882             4.42556             9.55259             3.04951            18.27969             2.22149             8.38446             2.33796             2.01340             9.55699             1.86001             2.34883             2.25346             2.20607             5.93360             2.11033             2.12283             1.58019             1.69341             1.62271  