# vtk DataFile Version 3.0
Output from R2
ASCII
DATASET UNSTRUCTURED_GRID
POINTS       2934 double
     0.00000     0.00000   0.
     0.50000     0.00000   0.
     1.00000     0.00000   0.
     1.50000     0.00000   0.
     2.00000     0.00000   0.
     2.50000     0.00000   0.
     3.00000     0.00000   0.
     3.50000     0.00000   0.
     4.00000     0.00000   0.
     4.50000     0.00000   0.
     5.00000     0.00000   0.
     5.50000     0.00000   0.
     6.00000     0.00000   0.
     6.50000     0.00000   0.
     7.00000     0.00000   0.
     7.50000     0.00000   0.
     8.00000     0.00000   0.
     8.50000     0.00000   0.
     9.00000     0.00000   0.
     9.50000     0.00000   0.
    10.00000     0.00000   0.
    10.50000     0.00000   0.
    11.00000     0.00000   0.
    11.50000     0.00000   0.
    12.00000     0.00000   0.
    12.50000     0.00000   0.
    13.00000     0.00000   0.
    13.50000     0.00000   0.
    14.00000     0.00000   0.
    14.50000     0.00000   0.
    15.00000     0.00000   0.
    15.50000     0.00000   0.
    16.00000     0.00000   0.
    16.50000     0.00000   0.
    17.00000     0.00000   0.
    17.50000     0.00000   0.
    18.00000     0.00000   0.
    18.50000     0.00000   0.
    19.00000     0.00000   0.
    19.50000     0.00000   0.
    20.00000     0.00000   0.
    20.50000     0.00000   0.
    21.00000     0.00000   0.
    21.50000     0.00000   0.
    22.00000     0.00000   0.
    22.50000     0.00000   0.
    23.00000     0.00000   0.
    23.50000     0.00000   0.
    24.00000     0.00000   0.
    24.50000     0.00000   0.
    25.00000     0.00000   0.
    25.50000     0.00000   0.
    26.00000     0.00000   0.
    26.50000     0.00000   0.
    27.00000     0.00000   0.
    27.50000     0.00000   0.
    28.00000     0.00000   0.
    28.50000     0.00000   0.
    29.00000     0.00000   0.
    29.50000     0.00000   0.
    30.00000     0.00000   0.
    30.50000     0.00000   0.
    31.00000     0.00000   0.
    31.50000     0.00000   0.
    32.00000     0.00000   0.
    32.50000     0.00000   0.
    33.00000     0.00000   0.
    33.50000     0.00000   0.
    34.00000     0.00000   0.
    34.50000     0.00000   0.
    35.00000     0.00000   0.
    35.50000     0.00000   0.
    36.00000     0.00000   0.
    36.50000     0.00000   0.
    37.00000     0.00000   0.
    37.50000     0.00000   0.
    38.00000     0.00000   0.
    38.50000     0.00000   0.
    39.00000     0.00000   0.
    39.50000     0.00000   0.
    40.00000     0.00000   0.
    40.50000     0.00000   0.
    41.00000     0.00000   0.
    41.50000     0.00000   0.
    42.00000     0.00000   0.
    42.50000     0.00000   0.
    43.00000     0.00000   0.
    43.50000     0.00000   0.
    44.00000     0.00000   0.
    44.50000     0.00000   0.
    45.00000     0.00000   0.
    45.50000     0.00000   0.
    46.00000     0.00000   0.
    46.50000     0.00000   0.
    47.00000     0.00000   0.
    47.50000     0.00000   0.
    48.00000     0.00000   0.
    48.50000     0.00000   0.
    49.00000     0.00000   0.
    49.50000     0.00000   0.
    50.00000     0.00000   0.
    50.50000     0.00000   0.
    51.00000     0.00000   0.
    51.50000     0.00000   0.
    52.00000     0.00000   0.
    52.50000     0.00000   0.
    53.00000     0.00000   0.
    53.50000     0.00000   0.
    54.00000     0.00000   0.
    54.50000     0.00000   0.
    55.00000     0.00000   0.
    55.50000     0.00000   0.
    56.00000     0.00000   0.
    56.50000     0.00000   0.
    57.00000     0.00000   0.
    57.50000     0.00000   0.
    58.00000     0.00000   0.
    58.50000     0.00000   0.
    59.00000     0.00000   0.
    59.50000     0.00000   0.
     0.81000    -5.00000   0.
     2.46000    -5.00000   0.
     4.12000    -5.00000   0.
     5.77000    -5.00000   0.
     7.42000    -5.00000   0.
     9.08000    -5.00000   0.
    10.73000    -5.00000   0.
    12.38000    -5.00000   0.
    14.04000    -5.00000   0.
    15.69000    -5.00000   0.
    17.35000    -5.00000   0.
    19.00000    -5.00000   0.
    20.65000    -5.00000   0.
    22.31000    -5.00000   0.
    23.96000    -5.00000   0.
    25.62000    -5.00000   0.
    27.27000    -5.00000   0.
    28.92000    -5.00000   0.
    30.58000    -5.00000   0.
    32.23000    -5.00000   0.
    33.88000    -5.00000   0.
    35.54000    -5.00000   0.
    37.19000    -5.00000   0.
    38.85000    -5.00000   0.
    40.50000    -5.00000   0.
    42.15000    -5.00000   0.
    43.81000    -5.00000   0.
    45.46000    -5.00000   0.
    47.12000    -5.00000   0.
    48.77000    -5.00000   0.
    50.42000    -5.00000   0.
    52.08000    -5.00000   0.
    53.73000    -5.00000   0.
    55.38000    -5.00000   0.
    57.04000    -5.00000   0.
    58.69000    -5.00000   0.
     0.16667     0.00000   0.
     0.33333     0.00000   0.
     0.66667     0.00000   0.
     0.83333     0.00000   0.
     1.16667     0.00000   0.
     1.33333     0.00000   0.
     1.66667     0.00000   0.
     1.83333     0.00000   0.
     2.16667     0.00000   0.
     2.33333     0.00000   0.
     2.66667     0.00000   0.
     2.83333     0.00000   0.
     3.16667     0.00000   0.
     3.33333     0.00000   0.
     3.66667     0.00000   0.
     3.83333     0.00000   0.
     4.16667     0.00000   0.
     4.33333     0.00000   0.
     4.66667     0.00000   0.
     4.83333     0.00000   0.
     5.16667     0.00000   0.
     5.33333     0.00000   0.
     5.66667     0.00000   0.
     5.83333     0.00000   0.
     6.16667     0.00000   0.
     6.33333     0.00000   0.
     6.66667     0.00000   0.
     6.83333     0.00000   0.
     7.16667     0.00000   0.
     7.33333     0.00000   0.
     7.66667     0.00000   0.
     7.83333     0.00000   0.
     8.16667     0.00000   0.
     8.33333     0.00000   0.
     8.66667     0.00000   0.
     8.83333     0.00000   0.
     9.16667     0.00000   0.
     9.33333     0.00000   0.
     9.66667     0.00000   0.
     9.83333     0.00000   0.
    10.16667     0.00000   0.
    10.33333     0.00000   0.
    10.66667     0.00000   0.
    10.83333     0.00000   0.
    11.16667     0.00000   0.
    11.33333     0.00000   0.
    11.66667     0.00000   0.
    11.83333     0.00000   0.
    12.16667     0.00000   0.
    12.33333     0.00000   0.
    12.66667     0.00000   0.
    12.83333     0.00000   0.
    13.16667     0.00000   0.
    13.33333     0.00000   0.
    13.66667     0.00000   0.
    13.83333     0.00000   0.
    14.16667     0.00000   0.
    14.33333     0.00000   0.
    14.66667     0.00000   0.
    14.83333     0.00000   0.
    15.16667     0.00000   0.
    15.33333     0.00000   0.
    15.66667     0.00000   0.
    15.83333     0.00000   0.
    16.16667     0.00000   0.
    16.33333     0.00000   0.
    16.66667     0.00000   0.
    16.83333     0.00000   0.
    17.16667     0.00000   0.
    17.33333     0.00000   0.
    17.66667     0.00000   0.
    17.83333     0.00000   0.
    18.16667     0.00000   0.
    18.33333     0.00000   0.
    18.66667     0.00000   0.
    18.83333     0.00000   0.
    19.16667     0.00000   0.
    19.33333     0.00000   0.
    19.66667     0.00000   0.
    19.83333     0.00000   0.
    20.16667     0.00000   0.
    20.33333     0.00000   0.
    20.66667     0.00000   0.
    20.83333     0.00000   0.
    21.16667     0.00000   0.
    21.33333     0.00000   0.
    21.66667     0.00000   0.
    21.83333     0.00000   0.
    22.16667     0.00000   0.
    22.33333     0.00000   0.
    22.66667     0.00000   0.
    22.83333     0.00000   0.
    23.16667     0.00000   0.
    23.33333     0.00000   0.
    23.66667     0.00000   0.
    23.83333     0.00000   0.
    24.16667     0.00000   0.
    24.33333     0.00000   0.
    24.66667     0.00000   0.
    24.83333     0.00000   0.
    25.16667     0.00000   0.
    25.33333     0.00000   0.
    25.66667     0.00000   0.
    25.83333     0.00000   0.
    26.16667     0.00000   0.
    26.33333     0.00000   0.
    26.66667     0.00000   0.
    26.83333     0.00000   0.
    27.16667     0.00000   0.
    27.33333     0.00000   0.
    27.66667     0.00000   0.
    27.83333     0.00000   0.
    28.16667     0.00000   0.
    28.33333     0.00000   0.
    28.66667     0.00000   0.
    28.83333     0.00000   0.
    29.16667     0.00000   0.
    29.33333     0.00000   0.
    29.66667     0.00000   0.
    29.83333     0.00000   0.
    30.16667     0.00000   0.
    30.33333     0.00000   0.
    30.66667     0.00000   0.
    30.83333     0.00000   0.
    31.16667     0.00000   0.
    31.33333     0.00000   0.
    31.66667     0.00000   0.
    31.83333     0.00000   0.
    32.16667     0.00000   0.
    32.33333     0.00000   0.
    32.66667     0.00000   0.
    32.83333     0.00000   0.
    33.16667     0.00000   0.
    33.33333     0.00000   0.
    33.66667     0.00000   0.
    33.83333     0.00000   0.
    34.16667     0.00000   0.
    34.33333     0.00000   0.
    34.66667     0.00000   0.
    34.83333     0.00000   0.
    35.16667     0.00000   0.
    35.33333     0.00000   0.
    35.66667     0.00000   0.
    35.83333     0.00000   0.
    36.16667     0.00000   0.
    36.33333     0.00000   0.
    36.66667     0.00000   0.
    36.83333     0.00000   0.
    37.16667     0.00000   0.
    37.33333     0.00000   0.
    37.66667     0.00000   0.
    37.83333     0.00000   0.
    38.16667     0.00000   0.
    38.33333     0.00000   0.
    38.66667     0.00000   0.
    38.83333     0.00000   0.
    39.16667     0.00000   0.
    39.33333     0.00000   0.
    39.66667     0.00000   0.
    39.83333     0.00000   0.
    40.16667     0.00000   0.
    40.33333     0.00000   0.
    40.66667     0.00000   0.
    40.83333     0.00000   0.
    41.16667     0.00000   0.
    41.33333     0.00000   0.
    41.66667     0.00000   0.
    41.83333     0.00000   0.
    42.16667     0.00000   0.
    42.33333     0.00000   0.
    42.66667     0.00000   0.
    42.83333     0.00000   0.
    43.16667     0.00000   0.
    43.33333     0.00000   0.
[...]
POINT_DATA      2934
CELL_DATA      5409
SCALARS Resistivity(ohm.m) double 1
LOOKUP_TABLE default
             7.50952             0.76565            15.22495            23.24086             9.13589            20.12915             2.14872             1.04965             0.74328             0.77573            23.38291             1.05924            15.26364            25.98059             0.81040             1.22739            17.28033             4.24320             0.77399            20.68858             7.14377            20.34580            36.02608             1.11849             1.16422             0.88626             1.90130            20.10712            20.10304            18.91672             4.40230             1.10525            20.19306             0.74237             3.45435            16.18159             8.08490             1.64575             6.23498             7.06394            10.28690             0.98170             0.83479             3.85942            17.42495            11.30698             9.28699            10.13125             2.52122            19.77220            18.53474            28.27508             9.06469            15.01009            18.91120            17.32438             0.78563            23.73738             4.01784            15.02182             0.76354            19.03290             1.01669             7.56436             1.98725            18.13910             4.69555             3.06998             0.87796            13.88216             0.82172            16.44258             3.34829             2.21406             4.66868             0.75058             3.79644            15.12765            19.10699            24.36368            14.41347            16.44015            11.26429            17.24833             1.13522             2.47093             3.79697             3.58609             0.97554            15.11423            20.53974             3.94532             4.47331             5.97904            13.07313             2.25067             6.69344             0.73586            20.87035             1.03958             1.03534             2.08833             1.09255            17.67690             4.20983            24.81833             1.26469             0.82894            27.81905             0.72506             0.74114             2.38553             2.27541             2.51596             1.25523             1.20254            20.83358             8.74103             1.21442             1.03190             5.05506            22.51013            13.91218             2.34636            15.65110            12.29459            23.49056             2.34864             3.62850             0.74053            21.69541            14.80591             4.48410             1.17879            13.17168            11.46823             0.76636             0.74902             0.81495            10.76357            13.75749             2.73763            18.02609            19.40136            16.27720            20.42345             0.76515            16.31663             4.28493            14.56537             1.26666             4.69775             7.06675             0.98251             4.64001            22.53112             3.46150            23.26993            24.36088             1.26647             4.64099             1.08173             0.86134            19.55964             8.47323             1.02756             1.14170            22.90144             2.67823             1.25944             0.79421             7.03124            19.31158             1.74765             1.75730             1.80333             1.86350             1.60546             1.23266             1.72298             1.11751             2.48421            22.77877             1.64190             1.07943             1.71241            23.30381            14.46185            19.74254            13.31776             3.42394            19.26598            22.93888             1.11244             8.51765             9.92155            21.62907            16.47652            12.59873            11.18028            10.70500            10.19459             3.52516             2.93154             3.10016            15.12982            17.31128            16.25892             2.09148            21.43684            12.91790            13.90891            22.07056            18.57253            18.21875             1.29232             6.52614             2.24738             1.09271             0.87345             7.42039             7.43346            11.60580             9.99324             0.89605             2.92079             2.95748             1.53589             1.40636             2.26364             5.03278            13.08796            14.11703            12.10416            11.12181             1.48410            16.26354             1.34803             3.02296            12.25547            12.01864             9.07683             3.10782             3.41086             2.05172             6.75204             1.17703            16.42119             2.44628             1.35010            14.42793             7.51328             8.33294             1.27995            25.32500            23.41024             6.52678             1.47084            11.04069            15.27277             9.28115             2.39247             3.17192             0.86239            15.48479             2.32043             7.32277            13.95018            21.14013            19.10007             4.06161             0.77019             7.73479             6.15623            18.57804             2.88062            23.40177             6.31707             1.00437             5.31123             2.24066             1.11189            14.30924             9.29398             3.57819             8.48389            22.68000             2.54124             1.21949            16.55722             1.40774             1.81558             6.97980             4.20126            20.73595            15.44004            13.47189             2.38098             0.76214            12.29150            20.14813             6.40311             6.78615            23.16370            23.79360            13.69437             0.77724            21.55256             0.96242            15.08306             1.03146            29.60556            20.45460             1.50069            17.76186             2.57005            18.30583             3.26636            20.33398            13.47629            20.70182            10.06329            15.64288            18.57673             1.16211            18.31189             0.79222             3.89987            14.39854            14.63698            16.72681             0.73326            29.64381            16.72289             8.08441             6.89241             1.31503             1.03418             0.84942            14.20027             1.02028            29.24997             1.64148             3.01261             3.30746            22.94099             4.95618             1.03984             0.98638             2.10583            28.78974             1.07604            24.83385             2.35160            17.28860             1.45556             1.02117             0.87412             1.06439             0.78468             2.08984             2.13553             1.05211             0.81067             0.87800             0.99956             3.04603             2.75121             2.41607             3.79021             1.01229             1.08400            21.88096            24.91304             2.52190             9.63423             1.22680            15.30473            12.72261             2.98514            18.34391            20.16541            16.57419            15.95067             0.74262            15.31735             2.54673             2.64407             5.15390            18.86079             2.16325             8.50983             8.76713             4.18813             7.98567            11.67480            18.65751             1.04258            19.65102            22.57814             1.26518             1.32042             1.02675            15.41539            12.17253             6.74549            16.11263            15.95490            15.62004             0.75370            12.76233            19.27515            19.17436            14.56596             1.02310             1.87290             0.82662             1.04297             9.43148             1.01810            20.33192             8.19572             7.80216             0.91994             4.49986            19.70609             0.97687            10.27182            16.18944             1.05012             0.98942             6.03187             5.63205            16.09515             1.74211             0.96590             2.99338            21.64474            21.80344             2.04398            14.89288            11.65853            31.40440             3.54146            18.84143             6.28967            19.46741            13.81891             2.24415            26.53920             1.01002            20.25605            21.78764             2.53125            19.62576            16.24505            17.32495             8.78586            16.16023            16.81502             9.56391             9.65520             2.89570             1.87851            13.82396            17.48120            10.18500            22.35656             0.98243             1.37841             1.33688            16.58299             1.21490            15.82909             1.01668            24.11807            13.19936            20.36382            20.01075             8.25704             5.17876            29.64023            20.25114             9.65281            21.39811             3.08764             1.12464             5.52696            13.86628             6.24480             6.92085             2.16076             0.83722             1.49452            23.99910            16.56972            17.60349             1.19395             3.38100            16.46910            20.61062            17.84985             1.87756             1.56818            14.71366             1.05466            22.48328             1.80258            19.75491            14.19624             9.67599             2.01118             1.01270             1.45165             0.88331             8.02353            22.82893             4.19545             2.96330             1.03172             0.99356             3.93382             0.77184            10.87003             1.30303             7.27825             1.04124             1.65134            14.22642            10.28170             2.26735            18.05128             1.33650             1.72694             3.77349            10.46915             4.36159            10.58846            19.41209             1.85538            18.53282            11.60439            10.63227            10.55928             9.80649             3.45158            16.55886            22.12923            15.81504            14.77806             3.20177             0.90258             1.55885             4.93741             3.92665             8.92622             2.44219             2.88160             3.89833            10.09186             1.00848             1.47273             1.05734             9.73048            14.78196             1.46138             3.89434            10.39907            12.05441             3.63270             3.18795             6.67704             4.70309             1.22625             4.31118             8.06576            27.56397            12.04568             6.95908             2.15367             0.92587             1.17827            17.86053            13.72452            15.21786            26.00813            16.49924             0.72839             2.78226             1.75832             1.17859             1.16642             3.38224             1.20017             0.99379             2.26425            16.67578            13.97460             0.83945             2.43567             1.05305             1.14898             3.12255             7.54955             1.59071             9.73823            12.96970            14.98432            17.11435             3.05514            21.20738             0.90262             0.86346             3.07466            18.99240             2.77455            12.50264             8.00887            20.04571            11.00210             0.75314            18.86135            23.50388             1.13953             2.35867             2.89167            12.86479             3.58060             1.75034             1.03031            16.57596             7.77563             1.04127             1.02687             1.46155             0.90741             0.82133            13.58916            10.49538             1.05310             2.10410             1.50337            22.56536            25.66712            18.46473             0.99703            17.87498            17.91553             4.10867            13.24651            18.10230            20.45697            16.61288             6.61155            14.62375            18.38755            18.33796             0.81095             1.71503            13.74929            20.69899             3.72871            15.82432            14.17831            22.01055            17.37421             6.59151            11.20368            14.30442             0.78465             1.57863            10.03084             1.19126            16.87710            19.45587             1.63596             1.85481            15.39986            12.06327             0.97884             3.86920            19.54132             2.39151            17.64564            11.15292            13.35552             9.19484            10.14222            11.66247             1.93442            14.86440            12.80740            13.68394             1.15839             2.90104            19.72657            15.66994             1.13341             1.05017            21.24019             1.64847            11.15027             1.65937            17.44847             2.53337            27.96071             4.05895             3.41316             0.84366             1.49211            12.05780             1.87058             9.92520             5.93299             6.36960            19.13279            15.66972            17.22099             0.78179            19.76462            15.98749             0.99095             1.64727            11.12445            17.66771            12.32348             1.24176             9.08842             4.33567            13.56275             3.78501             0.98140            17.28624            13.24755             1.50492             1.62199            23.21598             1.00596            13.52313            15.97312             1.10055             1.89220            20.12150             8.25953            13.30801             5.25402             1.98664            15.23228             3.66863            20.88160             1.23889            15.28616             3.00518             8.14568             9.59195            14.96046            18.33843             6.37542            14.39592            14.15575             2.16601             0.89426             8.08237            14.03114             0.86986             7.88753            10.55117            11.12097            18.61534             2.34001             1.08851             0.92940             2.75159             1.29931             0.76052            21.02068            20.03969            13.16801             4.68024             1.28520            17.25825            13.40976             4.95120            11.72742             8.69898             1.03683            14.12903             3.37375            19.61793             1.00551            10.68053             6.74440            10.89913             1.37493             1.23977             0.90597             0.86629            13.51428             2.37132            24.27707            13.54268             1.03244             1.03379             1.02665            18.68461             2.23843             1.97316             1.39897             1.03354             1.08259             0.76917             1.42355            11.44540            23.27412            11.19831             0.97254             0.99931             1.06357             1.94123            11.50740            14.50433             3.56458             3.42477            21.27171             0.78169             1.78994            15.48431             1.05068            19.14651            19.65543            20.94471            13.34370             0.78351            19.23956             0.92199            11.48887             9.58466             0.79345            16.02602            15.97241            22.37796             1.51563             0.76911            18.13910            21.15738            15.33264            15.46117             0.99234             0.74480            17.20811            15.62225             8.21694             8.20721             7.17999            11.55434             0.94432             9.90571             6.71560            24.50026             2.59445            11.81241            15.81263             9.26253             2.33093             7.71326            18.38874             7.76009            18.27838             1.61012            14.99626            12.73308            11.98336             7.38162             2.94267            10.59480            19.45372             5.57170            11.15722             4.60183            10.19176             8.03644            12.73963            21.57075             0.99074            13.86870            14.20164            17.95584            14.00966            21.95308            22.04983             9.14227             2.05015             2.56922            10.58532            16.55679             1.18782            19.26477             1.07552             4.94728             1.14044            10.98929             1.06986             3.02440            11.10858             1.46303             4.41542            17.58041             0.85774             0.75668            10.26003             3.29246            13.21832            12.47731             9.45581             3.00472            10.27701             2.29021             8.96868            15.18230             9.38500             0.74261             8.85980             1.42627             0.99591             7.09671             1.00205             1.02965            10.05486             4.27350             9.22780             5.12370             1.56512            14.21846             7.90176            25.01835             9.65297             7.07486            12.28679             9.34690            11.50261            10.54300            11.07540             8.76010             8.15959             8.66542             1.60311             1.59780             1.10195             2.44823             1.57106             1.44297             1.61388             1.24524             1.07180             1.65224             2.10796             8.85920             8.25668            13.06672             5.92647             8.68867             7.18930            12.64556             1.15034            15.90950             3.38720             9.27755             6.62841             7.39834             9.90967             1.97644             6.23546            14.39237            12.68033            14.53767             5.97477             4.72811             9.35398             3.17491            17.50969             2.18956             7.83336             2.52839             2.08207             9.51927             1.84378             2.53592             2.35223             2.36408             5.76367             2.21292             2.13689             1.56562             1.67791             1.60414  