# vtk DataFile Version 3.0
Output from R2
ASCII
DATASET UNSTRUCTURED_GRID
POINTS       2934 double
     0.00000     0.00000   0.
     0.50000     0.00000   0.
     1.00000     0.00000   0.
     1.50000     0.00000   0.
     2.00000     0.00000   0.
     2.50000     0.00000   0.
     3.00000     0.00000   0.
     3.50000     0.00000   0.
     4.00000     0.00000   0.
     4.50000     0.00000   0.
     5.00000     0.00000   0.
     5.50000     0.00000   0.
     6.00000     0.00000   0.
     6.50000     0.00000   0.
     7.00000     0.00000   0.
     7.50000     0.00000   0.
     8.00000     0.00000   0.
     8.50000     0.00000   0.
     9.00000     0.00000   0.
     9.50000     0.00000   0.
    10.00000     0.00000   0.
    10.50000     0.00000   0.
    11.00000     0.00000   0.
    11.50000     0.00000   0.
    12.00000     0.00000   0.
    12.50000     0.00000   0.
    13.00000     0.00000   0.
    13.50000     0.00000   0.
    14.00000     0.00000   0.
    14.50000     0.00000   0.
    15.00000     0.00000   0.
    15.50000     0.00000   0.
    16.00000     0.00000   0.
    16.50000     0.00000   0.
    17.00000     0.00000   0.
    17.50000     0.00000   0.
    18.00000     0.00000   0.
    18.50000     0.00000   0.
    19.00000     0.00000   0.
    19.50000     0.00000   0.
    20.00000     0.00000   0.
    20.50000     0.00000   0.
    21.00000     0.00000   0.
    21.50000     0.00000   0.
    22.00000     0.00000   0.
    22.50000     0.00000   0.
    23.00000     0.00000   0.
    23.50000     0.00000   0.
    24.00000     0.00000   0.
    24.50000     0.00000   0.
    25.00000     0.00000   0.
    25.50000     0.00000   0.
    26.00000     0.00000   0.
    26.50000     0.00000   0.
    27.00000     0.00000   0.
    27.50000     0.00000   0.
    28.00000     0.00000   0.
    28.50000     0.00000   0.
    29.00000     0.00000   0.
    29.50000     0.00000   0.
    30.00000     0.00000   0.
    30.50000     0.00000   0.
    31.00000     0.00000   0.
    31.50000     0.00000   0.
    32.00000     0.00000   0.
    32.50000     0.00000   0.
    33.00000     0.00000   0.
    33.50000     0.00000   0.
    34.00000     0.00000   0.
    34.50000     0.00000   0.
    35.00000     0.00000   0.
    35.50000     0.00000   0.
    36.00000     0.00000   0.
    36.50000     0.00000   0.
    37.00000     0.00000   0.
    37.50000     0.00000   0.
    38.00000     0.00000   0.
    38.50000     0.00000   0.
    39.00000     0.00000   0.
    39.50000     0.00000   0.
    40.00000     0.00000   0.
    40.50000     0.00000   0.
    41.00000     0.00000   0.
    41.50000     0.00000   0.
    42.00000     0.00000   0.
    42.50000     0.00000   0.
    43.00000     0.00000   0.
    43.50000     0.00000   0.
    44.00000     0.00000   0.
    44.50000     0.00000   0.
    45.00000     0.00000   0.
    45.50000     0.00000   0.
    46.00000     0.00000   0.
    46.50000     0.00000   0.
    47.00000     0.00000   0.
    47.50000     0.00000   0.
    48.00000     0.00000   0.
    48.50000     0.00000   0.
    49.00000     0.00000   0.
    49.50000     0.00000   0.
    50.00000     0.00000   0.
    50.50000     0.00000   0.
    51.00000     0.00000   0.
    51.50000     0.00000   0.
    52.00000     0.00000   0.
    52.50000     0.00000   0.
    53.00000     0.00000   0.
    53.50000     0.00000   0.
    54.00000     0.00000   0.
    54.50000     0.00000   0.
    55.00000     0.00000   0.
    55.50000     0.00000   0.
    56.00000     0.00000   0.
    56.50000     0.00000   0.
    57.00000     0.00000   0.
    57.50000     0.00000   0.
    58.00000     0.00000   0.
    58.50000     0.00000   0.
    59.00000     0.00000   0.
    59.50000     0.00000   0.
     0.81000    -5.00000   0.
     2.46000    -5.00000   0.
     4.12000    -5.00000   0.
     5.77000    -5.00000   0.
     7.42000    -5.00000   0.
     9.08000    -5.00000   0.
    10.73000    -5.00000   0.
    12.38000    -5.00000   0.
    14.04000    -5.00000   0.
    15.69000    -5.00000   0.
    17.35000    -5.00000   0.
    19.00000    -5.00000   0.
    20.65000    -5.00000   0.
    22.31000    -5.00000   0.
    23.96000    -5.00000   0.
    25.62000    -5.00000   0.
    27.27000    -5.00000   0.
    28.92000    -5.00000   0.
    30.58000    -5.00000   0.
    32.23000    -5.00000   0.
    33.88000    -5.00000   0.
    35.54000    -5.00000   0.
    37.19000    -5.00000   0.
    38.85000    -5.00000   0.
    40.50000    -5.00000   0.
    42.15000    -5.00000   0.
    43.81000    -5.00000   0.
    45.46000    -5.00000   0.
    47.12000    -5.00000   0.
    48.77000    -5.00000   0.
    50.42000    -5.00000   0.
    52.08000    -5.00000   0.
    53.73000    -5.00000   0.
    55.38000    -5.00000   0.
    57.04000    -5.00000   0.
    58.69000    -5.00000   0.
     0.16667     0.00000   0.
     0.33333     0.00000   0.
     0.66667     0.00000   0.
     0.83333     0.00000   0.
     1.16667     0.00000   0.
     1.33333     0.00000   0.
     1.66667     0.00000   0.
     1.83333     0.00000   0.
     2.16667     0.00000   0.
     2.33333     0.00000   0.
     2.66667     0.00000   0.
     2.83333     0.00000   0.
     3.16667     0.00000   0.
     3.33333     0.00000   0.
     3.66667     0.00000   0.
     3.83333     0.00000   0.
     4.16667     0.00000   0.
     4.33333     0.00000   0.
     4.66667     0.00000   0.
     4.83333     0.00000   0.
     5.16667     0.00000   0.
     5.33333     0.00000   0.
     5.66667     0.00000   0.
     5.83333     0.00000   0.
     6.16667     0.00000   0.
     6.33333     0.00000   0.
     6.66667     0.00000   0.
     6.83333     0.00000   0.
     7.16667     0.00000   0.
     7.33333     0.00000   0.
     7.66667     0.00000   0.
     7.83333     0.00000   0.
     8.16667     0.00000   0.
     8.33333     0.00000   0.
     8.66667     0.00000   0.
     8.83333     0.00000   0.
     9.16667     0.00000   0.
     9.33333     0.00000   0.
     9.66667     0.00000   0.
     9.83333     0.00000   0.
    10.16667     0.00000   0.
    10.33333     0.00000   0.
    10.66667     0.00000   0.
    10.83333     0.00000   0.
    11.16667     0.00000   0.
    11.33333     0.00000   0.
    11.66667     0.00000   0.
    11.83333     0.00000   0.
    12.16667     0.00000   0.
    12.33333     0.00000   0.
    12.66667     0.00000   0.
    12.83333     0.00000   0.
    13.16667     0.00000   0.
    13.33333     0.00000   0.
    13.66667     0.00000   0.
    13.83333     0.00000   0.
    14.16667     0.00000   0.
    14.33333     0.00000   0.
    14.66667     0.00000   0.
    14.83333     0.00000   0.
    15.16667     0.00000   0.
    15.33333     0.00000   0.
    15.66667     0.00000   0.
    15.83333     0.00000   0.
    16.16667     0.00000   0.
    16.33333     0.00000   0.
    16.66667     0.00000   0.
    16.83333     0.00000   0.
    17.16667     0.00000   0.
    17.33333     0.00000   0.
    17.66667     0.00000   0.
    17.83333     0.00000   0.
    18.16667     0.00000   0.
    18.33333     0.00000   0.
    18.66667     0.00000   0.
    18.83333     0.00000   0.
    19.16667     0.00000   0.
    19.33333     0.00000   0.
    19.66667     0.00000   0.
    19.83333     0.00000   0.
    20.16667     0.00000   0.
    20.33333     0.00000   0.
    20.66667     0.00000   0.
    20.83333     0.00000   0.
    21.16667     0.00000   0.
    21.33333     0.00000   0.
    21.66667     0.00000   0.
    21.83333     0.00000   0.
    22.16667     0.00000   0.
    22.33333     0.00000   0.
    22.66667     0.00000   0.
    22.83333     0.00000   0.
    23.16667     0.00000   0.
    23.33333     0.00000   0.
    23.66667     0.00000   0.
    23.83333     0.00000   0.
    24.16667     0.00000   0.
    24.33333     0.00000   0.
    24.66667     0.00000   0.
    24.83333     0.00000   0.
    25.16667     0.00000   0.
    25.33333     0.00000   0.
    25.66667     0.00000   0.
    25.83333     0.00000   0.
    26.16667     0.00000   0.
    26.33333     0.00000   0.
    26.66667     0.00000   0.
    26.83333     0.00000   0.
    27.16667     0.00000   0.
    27.33333     0.00000   0.
    27.66667     0.00000   0.
    27.83333     0.00000   0.
    28.16667     0.00000   0.
    28.33333     0.00000   0.
    28.66667     0.00000   0.
    28.83333     0.00000   0.
    29.16667     0.00000   0.
    29.33333     0.00000   0.
    29.66667     0.00000   0.
    29.83333     0.00000   0.
    30.16667     0.00000   0.
    30.33333     0.00000   0.
    30.66667     0.00000   0.
    30.83333     0.00000   0.
    31.16667     0.00000   0.
    31.33333     0.00000   0.
    31.66667     0.00000   0.
    31.83333     0.00000   0.
    32.16667     0.00000   0.
    32.33333     0.00000   0.
    32.66667     0.00000   0.
    32.83333     0.00000   0.
    33.16667     0.00000   0.
    33.33333     0.00000   0.
    33.66667     0.00000   0.
    33.83333     0.00000   0.
    34.16667     0.00000   0.
    34.33333     0.00000   0.
    34.66667     0.00000   0.
    34.83333     0.00000   0.
    35.16667     0.00000   0.
    35.33333     0.00000   0.
    35.66667     0.00000   0.
    35.83333     0.00000   0.
    36.16667     0.00000   0.
    36.33333     0.00000   0.
    36.66667     0.00000   0.
    36.83333     0.00000   0.
    37.16667     0.00000   0.
    37.33333     0.00000   0.
    37.66667     0.00000   0.
    37.83333     0.00000   0.
    38.16667     0.00000   0.
    38.33333     0.00000   0.
    38.66667     0.00000   0.
    38.83333     0.00000   0.
    39.16667     0.00000   0.
    39.33333     0.00000   0.
    39.66667     0.00000   0.
    39.83333     0.00000   0.
    40.16667     0.00000   0.
    40.33333     0.00000   0.
    40.66667     0.00000   0.
    40.83333     0.00000   0.
    41.16667     0.00000   0.
    41.33333     0.00000   0.
    41.66667     0.00000   0.
    41.83333     0.00000   0.
    42.16667     0.00000   0.
    42.33333     0.00000   0.
    42.66667     0.00000   0.
    42.83333     0.00000   0.
    43.16667     0.00000   0.
    43.33333     0.00000   0.
[...]
POINT_DATA      2934
CELL_DATA      5409
SCALARS Resistivity(ohm.m) double 1
LOOKUP_TABLE default
             7.30295             1.25506            19.50169            22.35838            10.55383            18.98409             2.26718             1.35193             1.23515             1.25082            24.56902             1.51851            17.68217            24.18968             1.22958             1.61081            16.47097             3.79020             1.19149            26.14004             6.58802            21.18356            36.37532             1.28541             1.45740             1.32390             1.87816            19.96536            20.52635            19.57535             4.11062             1.28408            19.07363             1.15423             3.65879            16.51634             8.50892             1.57508             6.58615             7.58901            10.06097             1.35098             1.24428             4.12162            20.35565             9.66470             9.80352             9.13292             2.10053            21.52268            17.85660            28.34113             9.37132            15.50750            20.23681            20.38325             1.24014            24.60603             4.12100            14.70738             1.21325            20.90999             1.39990             7.83808             1.75777            16.39036             4.43156             2.89662             1.29520            13.47779             1.18727            15.74127             3.59882             2.31355             5.27391             1.18710             4.45488            17.55455            18.14649            30.20896            13.51245            16.55700            10.37893            17.86809             1.46470             2.66006             4.12468             3.79035             1.35733            15.44551            21.40958             2.75774             4.63627             7.35412            12.78770             2.20790             6.58423             1.14925            21.58037             1.62161             1.36769             2.47459             1.54160            23.29795             4.42235            23.39021             1.49153             1.26246            28.14892             1.21314             1.17066             2.68375             2.35065             2.60957             1.68524             1.29915            22.66914             7.70105             1.32937             1.54310             5.10585            27.69299            17.04031             2.15596            15.57019            12.55302            23.19506             2.51827             2.58278             1.21793            21.15497            18.64230             4.05981             1.59555            12.52562            12.47307             1.14409             1.14659             1.17856             9.59240            16.13416             2.91365            19.45693            18.34869            16.05444            20.99777             1.24025            19.16258             4.35008            13.10348             1.69479             4.81240             6.80685             1.39171             4.90515            20.99886             3.76682            25.22899            23.72240             1.69708             4.19115             1.58143             1.29388            19.04426             8.86205             1.41327             1.72848            22.57540             2.82192             1.52428             1.25149             7.81990            20.70769             1.98383             1.99354             2.15945             2.16445             1.62843             1.47909             2.18905             1.33275             1.93113            24.52889             1.77653             1.29671             1.63847            24.60042            16.92656            21.55642            13.38652             3.49546            20.48618            26.83972             1.61515             7.19760             9.94295            24.74168            16.86739            11.70781            11.20258            10.50018             9.63464             3.76611             3.04633             3.15042            16.88683            16.30195            19.09046             2.04645            22.07907            13.00071            14.15488            22.12415            18.65175            20.09510             1.72482             6.75857             2.35889             1.73380             1.30740             7.37436             6.17743            13.13102            10.20556             1.27325             2.21759             2.85738             1.66262             1.40872             2.49300             5.28924            13.06677            15.00437            12.79009            12.09176             1.45362            18.22499             1.47718             2.40977            12.24537            11.49652             9.09302             3.11807             3.62543             1.86076             6.44791             1.56233            20.13375             2.45318             1.47025            15.99852             7.62359             6.91146             1.73381            24.03988            24.76080             6.10910             1.57209            13.32498            17.58890             9.06080             2.58013             3.42742             1.21714            16.02929             2.58917             8.96075            15.95439            23.04278            17.42107             4.20739             1.23586             7.71419             5.76491            18.48035             2.80910            25.63301             7.66395             1.44772             4.85907             2.19282             1.57195            14.26216             8.22347             3.11247             8.22590            23.22108             3.08236             1.55124            17.29873             1.45470             2.03826             6.12160             3.53417            22.25274            15.90257            16.51785             2.50472             1.20042            13.98263            19.79691             6.44521             6.60280            22.61438            23.49486            16.04367             1.23295            22.02092             1.42385            13.32583             1.41420            30.41654            21.81244             1.50451            17.50183             2.08549            17.40340             3.86583            22.42616            16.52299            23.13225             8.44119            20.84752            20.78986             1.80644            21.10045             1.18929             3.86070            15.18588            15.60035            20.72650             1.23359            29.79758            19.12926             7.84543             6.81012             1.47993             1.56488             1.26327            14.22238             1.44162            38.97200             1.92512             3.59347             2.50396            23.67428             4.49496             1.44084             1.38274             2.09425            32.19473             1.54463            25.16319             2.16058            17.09419             1.53369             1.38349             1.29248             1.61190             1.25376             2.09125             2.13005             1.50312             1.17343             1.30289             1.59395             2.24680             2.85462             2.42369             3.35212             1.38470             1.63006            22.53083            27.59465             2.59834             8.43545             1.70347            14.06085            11.77646             2.92804            19.85833            22.54355            17.06302            16.72737             1.14759            15.42626             2.63451             2.88465             5.14968            20.82993             2.20375             8.78282             8.58424             4.52808             8.49374            11.11088            19.98022             1.41627            22.90787            21.96386             1.92052             1.76482             1.47093            15.61372            13.91533             6.44364            16.06135            18.00227            15.03577             1.18315            13.09342            23.66238            21.49410            16.19212             1.44839             1.97692             1.21332             1.38552             9.30189             1.52013            18.75936             7.41259             7.73840             1.26571             4.80527            20.30156             1.35132            10.34164            18.59850             1.42232             1.36228             5.28991             6.17729            17.12551             1.60568             1.46392             2.78748            20.68273            23.96985             2.01460            15.20492            13.69188            32.01828             3.54758            19.15088             5.64137            22.03272            14.38977             1.90349            27.33128             1.52313            22.77287            26.07689             2.66825            19.42151            16.53077            16.96149             8.10466            16.48516            18.23166             9.57196             7.89290             3.02841             1.78076            13.55264            19.60330            11.26893            25.61636             1.39932             1.58317             1.73574            17.30098             1.61301            15.97991             1.45573            24.79960            13.65302            23.22398            21.27952             8.20885             4.91342            31.54591            20.39480             9.02401            22.77579             3.29116             1.40997             5.09082            14.12762             6.00618             6.21462             1.88744             1.17665             1.65605            24.67656            21.40273            18.34366             1.77253             3.55147            17.95125            20.33046            17.74043             1.72408             1.50136            14.26530             1.34598            21.75486             1.88568            20.11413            15.41724            11.67374             1.84377             1.36920             1.43991             1.32480             7.16016            24.27622             3.72373             2.25621             1.42388             1.35613             4.33041             1.24883            13.38797             1.56251             8.96291             1.54511             1.61339            15.17432            11.02627             2.53012            17.51765             1.52763             1.75823             4.02447             8.86285             3.91469            11.11815            20.97879             1.81096            19.68227            11.94878            10.25797             9.34671             9.26066             3.66114            16.85018            27.45452            14.76477            15.64190             3.05169             1.23699             1.49167             5.05147             2.86285             7.96079             2.56148             3.29078             3.75441            10.83465             1.36699             1.61303             1.49453             9.75826            16.53838             1.66226             4.02183             9.34137            15.54383             3.64180             3.40306             6.73653             4.29133             1.47097             4.07621             7.80625            31.67109            13.64154             7.24509             1.90813             1.34524             1.49276            16.93405            16.07633            16.81823            25.06351            18.67736             1.20762             3.05416             1.88891             1.61877             1.39084             3.25226             1.61937             1.39357             2.54420            16.46731            17.59458             1.19307             2.52572             1.63853             1.57394             3.17123             6.42004             1.61811             9.83290            14.61579            17.80549            17.33299             3.43705            22.17761             1.30758             1.20338             3.43237            20.35450             2.37792            13.34983             6.43091            21.38730            12.10603             1.25036            22.27983            26.03287             1.82693             2.22485             2.75586            12.15754             4.05403             1.65789             1.51272            17.38112             6.52606             1.53894             1.36634             1.52471             1.29676             1.25380            14.41732             9.38520             1.41015             2.16345             1.79422            23.80803            31.38584            17.93509             1.53999            16.51298            19.81422             4.44395            12.14768            18.14288            20.56980            17.00897             7.87416            15.67318            19.54743            17.75646             1.23378             1.66363            15.49094            21.59998             3.48423            16.64719            15.45676            26.77948            20.37647             5.78824            10.97347            14.95531             1.24976             1.57800             8.31038             1.42818            17.70830            20.65092             1.65957             1.77827            16.57070            12.44813             1.52537             3.58602            20.73339             2.32683            17.31482            12.40571            14.24627             8.43671             8.54686            11.94809             2.02620            14.63296            13.58828            13.57223             1.57718             3.07538            19.74396            17.22622             1.76430             1.43977            21.33075             2.09728            10.40696             1.64720            17.35987             2.62300            29.37925             3.92996             3.87302             1.27193             1.54973            11.64563             2.03561             8.10475             6.25129             6.26701            19.73213            16.13941            18.34661             1.17946            20.93391            18.26340             1.38983             1.81269            10.47457            18.07723            12.36860             1.66610             8.99809             4.43649            13.72752             4.11704             1.39123            18.32564            14.76749             1.74737             1.76536            24.73151             1.37890            13.69737            18.75244             1.71013             1.92349            22.71836             8.94537            12.36855             4.58396             1.85950            15.67008             3.94380            21.68551             1.91296            14.25685             2.75209             7.43064             9.19534            15.94670            19.02704             8.00539            14.96382            14.90288             1.90170             1.33559             7.94913            13.75354             1.27485             8.07218            10.60810            11.57485            18.35372             2.66265             1.54139             1.37168             3.36163             1.68716             1.19063            24.16800            20.16952            13.43283             4.87797             1.75312            18.37043            14.65013             4.44104            13.91217             8.14756             1.42540            15.75873             3.36026            19.60658             1.39507            10.74073             7.31860             9.54187             2.02340             1.52735             1.32025             1.28333            12.52441             2.81218            25.75033            14.37137             1.40007             1.35752             1.43461            19.55276             2.26134             1.95269             1.53075             1.40366             1.67496             1.24967             1.60867             9.37128            25.13458            10.48562             1.41742             1.36654             1.56286             1.84747            13.06736            14.92320             3.65795             3.35785            21.76747             1.26285             1.72480            15.99462             1.56935            18.09263            20.95316            20.27833            13.63958             1.25145            19.96122             1.31892            11.99307             9.65528             1.19472            17.04828            14.88664            22.05374             1.55363             1.25177            17.27914            22.55514            14.59850            17.57213             1.58285             1.24554            17.54240            17.19848             7.98776             8.39449             7.23506            12.38124             1.42027             9.01730             7.05553            25.43003             3.18775            12.31572            16.99939             8.70069             2.24707             7.15654            19.69972             8.33863            18.62256             1.56147            13.41706            10.95512            11.54344             7.72517             2.89758            10.99304            19.68160             5.78348            11.65762             4.96831             8.92052             7.88465            12.98884            24.23797             1.42901            15.59742            15.63551            17.33074            13.43598            21.86026            22.34552             7.70603             2.02977             2.89976             9.75409            19.18523             1.87984            20.84036             1.55173             5.35269             1.59670            10.82040             1.61301             3.23538            10.06651             2.10147             4.40619            17.44003             1.28568             1.25314            10.06474             3.73467            13.55294            12.54613             9.44126             3.35747             9.84325             2.59889             7.66866            16.62087             8.33110             1.23579             7.28538             1.67050             1.37698             6.61787             1.37121             1.60983             8.42810             4.09780             9.65437             5.92938             1.73943            15.46342             6.26669            27.60323             8.65837             5.86167            14.03543             9.03124            10.90987             9.85802            10.75010             8.81731             7.52213             7.80113             2.11996             1.87982             1.38933             1.89113             1.85686             1.52066             2.01230             1.51143             1.31724             1.98214             1.78456             8.88287             7.32164            13.66459             4.80402             8.69187             5.52571            12.59491             1.25565            17.19184             3.78069             9.45363             5.38984             7.15588            11.42422             2.00374             6.71863            15.49432            15.77952            14.66187             5.66865             4.26406             7.77570             2.52114            17.13528             2.67348             7.76166             2.90058             2.16589             9.26570             2.14649             2.96795             2.79837             2.68832             4.67814             2.38822             2.56159             1.84641             1.96668             1.90563  