# vtk DataFile Version 3.0
Output from R2
ASCII
DATASET UNSTRUCTURED_GRID
POINTS       2934 double
     0.00000     0.00000   0.
     0.50000     0.00000   0.
     1.00000     0.00000   0.
     1.50000     0.00000   0.
     2.00000     0.00000   0.
     2.50000     0.00000   0.
     3.00000     0.00000   0.
     3.50000     0.00000   0.
     4.00000     0.00000   0.
     4.50000     0.00000   0.
     5.00000     0.00000   0.
     5.50000     0.00000   0.
     6.00000     0.00000   0.
     6.50000     0.00000   0.
     7.00000     0.00000   0.
     7.50000     0.00000   0.
     8.00000     0.00000   0.
     8.50000     0.00000   0.
     9.00000     0.00000   0.
     9.50000     0.00000   0.
    10.00000     0.00000   0.
    10.50000     0.00000   0.
    11.00000     0.00000   0.
    11.50000     0.00000   0.
    12.00000     0.00000   0.
    12.50000     0.00000   0.
    13.00000     0.00000   0.
    13.50000     0.00000   0.
    14.00000     0.00000   0.
    14.50000     0.00000   0.
    15.00000     0.00000   0.
    15.50000     0.00000   0.
    16.00000     0.00000   0.
    16.50000     0.00000   0.
    17.00000     0.00000   0.
    17.50000     0.00000   0.
    18.00000     0.00000   0.
    18.50000     0.00000   0.
    19.00000     0.00000   0.
    19.50000     0.00000   0.
    20.00000     0.00000   0.
    20.50000     0.00000   0.
    21.00000     0.00000   0.
    21.50000     0.00000   0.
    22.00000     0.00000   0.
    22.50000     0.00000   0.
    23.00000     0.00000   0.
    23.50000     0.00000   0.
    24.00000     0.00000   0.
    24.50000     0.00000   0.
    25.00000     0.00000   0.
    25.50000     0.00000   0.
    26.00000     0.00000   0.
    26.50000     0.00000   0.
    27.00000     0.00000   0.
    27.50000     0.00000   0.
    28.00000     0.00000   0.
    28.50000     0.00000   0.
    29.00000     0.00000   0.
    29.50000     0.00000   0.
    30.00000     0.00000   0.
    30.50000     0.00000   0.
    31.00000     0.00000   0.
    31.50000     0.00000   0.
    32.00000     0.00000   0.
    32.50000     0.00000   0.
    33.00000     0.00000   0.
    33.50000     0.00000   0.
    34.00000     0.00000   0.
    34.50000     0.00000   0.
    35.00000     0.00000   0.
    35.50000     0.00000   0.
    36.00000     0.00000   0.
    36.50000     0.00000   0.
    37.00000     0.00000   0.
    37.50000     0.00000   0.
    38.00000     0.00000   0.
    38.50000     0.00000   0.
    39.00000     0.00000   0.
    39.50000     0.00000   0.
    40.00000     0.00000   0.
    40.50000     0.00000   0.
    41.00000     0.00000   0.
    41.50000     0.00000   0.
    42.00000     0.00000   0.
    42.50000     0.00000   0.
    43.00000     0.00000   0.
    43.50000     0.00000   0.
    44.00000     0.00000   0.
    44.50000     0.00000   0.
    45.00000     0.00000   0.
    45.50000     0.00000   0.
    46.00000     0.00000   0.
    46.50000     0.00000   0.
    47.00000     0.00000   0.
    47.50000     0.00000   0.
    48.00000     0.00000   0.
    48.50000     0.00000   0.
    49.00000     0.00000   0.
    49.50000     0.00000   0.
    50.00000     0.00000   0.
    50.50000     0.00000   0.
    51.00000     0.00000   0.
    51.50000     0.00000   0.
    52.00000     0.00000   0.
    52.50000     0.00000   0.
    53.00000     0.00000   0.
    53.50000     0.00000   0.
    54.00000     0.00000   0.
    54.50000     0.00000   0.
    55.00000     0.00000   0.
    55.50000     0.00000   0.
    56.00000     0.00000   0.
    56.50000     0.00000   0.
    57.00000     0.00000   0.
    57.50000     0.00000   0.
    58.00000     0.00000   0.
    58.50000     0.00000   0.
    59.00000     0.00000   0.
    59.50000     0.00000   0.
     0.81000    -5.00000   0.
     2.46000    -5.00000   0.
     4.12000    -5.00000   0.
     5.77000    -5.00000   0.
     7.42000    -5.00000   0.
     9.08000    -5.00000   0.
    10.73000    -5.00000   0.
    12.38000    -5.00000   0.
    14.04000    -5.00000   0.
    15.69000    -5.00000   0.
    17.35000    -5.00000   0.
    19.00000    -5.00000   0.
    20.65000    -5.00000   0.
    22.31000    -5.00000   0.
    23.96000    -5.00000   0.
    25.62000    -5.00000   0.
    27.27000    -5.00000   0.
    28.92000    -5.00000   0.
    30.58000    -5.00000   0.
    32.23000    -5.00000   0.
    33.88000    -5.00000   0.
    35.54000    -5.00000   0.
    37.19000    -5.00000   0.
    38.85000    -5.00000   0.
    40.50000    -5.00000   0.
    42.15000    -5.00000   0.
    43.81000    -5.00000   0.
    45.46000    -5.00000   0.
    47.12000    -5.00000   0.
    48.77000    -5.00000   0.
    50.42000    -5.00000   0.
    52.08000    -5.00000   0.
    53.73000    -5.00000   0.
    55.38000    -5.00000   0.
    57.04000    -5.00000   0.
    58.69000    -5.00000   0.
     0.16667     0.00000   0.
     0.33333     0.00000   0.
     0.66667     0.00000   0.
     0.83333     0.00000   0.
     1.16667     0.00000   0.
     1.33333     0.00000   0.
     1.66667     0.00000   0.
     1.83333     0.00000   0.
     2.16667     0.00000   0.
     2.33333     0.00000   0.
     2.66667     0.00000   0.
     2.83333     0.00000   0.
     3.16667     0.00000   0.
     3.33333     0.00000   0.
     3.66667     0.00000   0.
     3.83333     0.00000   0.
     4.16667     0.00000   0.
     4.33333     0.00000   0.
     4.66667     0.00000   0.
     4.83333     0.00000   0.
     5.16667     0.00000   0.
     5.33333     0.00000   0.
     5.66667     0.00000   0.
     5.83333     0.00000   0.
     6.16667     0.00000   0.
     6.33333     0.00000   0.
     6.66667     0.00000   0.
     6.83333     0.00000   0.
     7.16667     0.00000   0.
     7.33333     0.00000   0.
     7.66667     0.00000   0.
     7.83333     0.00000   0.
     8.16667     0.00000   0.
     8.33333     0.00000   0.
     8.66667     0.00000   0.
     8.83333     0.00000   0.
     9.16667     0.00000   0.
     9.33333     0.00000   0.
     9.66667     0.00000   0.
     9.83333     0.00000   0.
    10.16667     0.00000   0.
    10.33333     0.00000   0.
    10.66667     0.00000   0.
    10.83333     0.00000   0.
    11.16667     0.00000   0.
    11.33333     0.00000   0.
    11.66667     0.00000   0.
    11.83333     0.00000   0.
    12.16667     0.00000   0.
    12.33333     0.00000   0.
    12.66667     0.00000   0.
    12.83333     0.00000   0.
    13.16667     0.00000   0.
    13.33333     0.00000   0.
    13.66667     0.00000   0.
    13.83333     0.00000   0.
    14.16667     0.00000   0.
    14.33333     0.00000   0.
    14.66667     0.00000   0.
    14.83333     0.00000   0.
    15.16667     0.00000   0.
    15.33333     0.00000   0.
    15.66667     0.00000   0.
    15.83333     0.00000   0.
    16.16667     0.00000   0.
    16.33333     0.00000   0.
    16.66667     0.00000   0.
    16.83333     0.00000   0.
    17.16667     0.00000   0.
    17.33333     0.00000   0.
    17.66667     0.00000   0.
    17.83333     0.00000   0.
    18.16667     0.00000   0.
    18.33333     0.00000   0.
    18.66667     0.00000   0.
    18.83333     0.00000   0.
    19.16667     0.00000   0.
    19.33333     0.00000   0.
    19.66667     0.00000   0.
    19.83333     0.00000   0.
    20.16667     0.00000   0.
    20.33333     0.00000   0.
    20.66667     0.00000   0.
    20.83333     0.00000   0.
    21.16667     0.00000   0.
    21.33333     0.00000   0.
    21.66667     0.00000   0.
    21.83333     0.00000   0.
    22.16667     0.00000   0.
    22.33333     0.00000   0.
    22.66667     0.00000   0.
    22.83333     0.00000   0.
    23.16667     0.00000   0.
    23.33333     0.00000   0.
    23.66667     0.00000   0.
    23.83333     0.00000   0.
    24.16667     0.00000   0.
    24.33333     0.00000   0.
    24.66667     0.00000   0.
    24.83333     0.00000   0.
    25.16667     0.00000   0.
    25.33333     0.00000   0.
    25.66667     0.00000   0.
    25.83333     0.00000   0.
    26.16667     0.00000   0.
    26.33333     0.00000   0.
    26.66667     0.00000   0.
    26.83333     0.00000   0.
    27.16667     0.00000   0.
    27.33333     0.00000   0.
    27.66667     0.00000   0.
    27.83333     0.00000   0.
    28.16667     0.00000   0.
    28.33333     0.00000   0.
    28.66667     0.00000   0.
    28.83333     0.00000   0.
    29.16667     0.00000   0.
    29.33333     0.00000   0.
    29.66667     0.00000   0.
    29.83333     0.00000   0.
    30.16667     0.00000   0.
    30.33333     0.00000   0.
    30.66667     0.00000   0.
    30.83333     0.00000   0.
    31.16667     0.00000   0.
    31.33333     0.00000   0.
    31.66667     0.00000   0.
    31.83333     0.00000   0.
    32.16667     0.00000   0.
    32.33333     0.00000   0.
    32.66667     0.00000   0.
    32.83333     0.00000   0.
    33.16667     0.00000   0.
    33.33333     0.00000   0.
    33.66667     0.00000   0.
    33.83333     0.00000   0.
    34.16667     0.00000   0.
    34.33333     0.00000   0.
    34.66667     0.00000   0.
    34.83333     0.00000   0.
    35.16667     0.00000   0.
    35.33333     0.00000   0.
    35.66667     0.00000   0.
    35.83333     0.00000   0.
    36.16667     0.00000   0.
    36.33333     0.00000   0.
    36.66667     0.00000   0.
    36.83333     0.00000   0.
    37.16667     0.00000   0.
    37.33333     0.00000   0.
    37.66667     0.00000   0.
    37.83333     0.00000   0.
    38.16667     0.00000   0.
    38.33333     0.00000   0.
    38.66667     0.00000   0.
    38.83333     0.00000   0.
    39.16667     0.00000   0.
    39.33333     0.00000   0.
    39.66667     0.00000   0.
    39.83333     0.00000   0.
    40.16667     0.00000   0.
    40.33333     0.00000   0.
    40.66667     0.00000   0.
    40.83333     0.00000   0.
    41.16667     0.00000   0.
    41.33333     0.00000   0.
    41.66667     0.00000   0.
    41.83333     0.00000   0.
    42.16667     0.00000   0.
    42.33333     0.00000   0.
    42.66667     0.00000   0.
    42.83333     0.00000   0.
    43.16667     0.00000   0.
    43.33333     0.00000   0.
[...]
POINT_DATA      2934
CELL_DATA      5409
SCALARS Resistivity(ohm.m) double 1
LOOKUP_TABLE default
             8.04534             1.38071            20.05670            19.86569            10.75228            18.59838             2.25429             1.39045             1.34521             1.38321            22.00865             1.64732            18.40223            21.87469             1.28471             1.67506            16.16604             3.89156             1.23573            27.33874             6.72880            20.93211            36.72191             1.33193             1.41409             1.39510             1.78740            19.79266            19.02814            20.55097             4.05940             1.34212            19.41891             1.18755             3.79669            16.49150             8.07107             1.55436             6.64723             7.54607            10.11382             1.38080             1.31086             4.01122            24.52615             8.96203            13.93383             8.88327             2.03796            21.54352            19.78502            28.60232             9.69523            16.15151            20.75960            19.47607             1.28778            21.85289             4.06062            13.48188             1.26154            20.00789             1.43074             7.51394             1.74391            17.06864             4.37983             2.86482             1.37148            13.21445             1.20407            20.47745             3.53937             2.29071             5.43635             1.26645             4.51991            17.98166            20.97344            24.35125            13.15708            17.01397             9.85180            16.61728             1.42268             2.84534             4.27118             3.76465             1.40925            18.20830            20.14715             2.65841             4.58927             8.07327            12.61122             1.91962             7.18456             1.17826            20.95701             1.79095             1.40489             2.55908             1.59334            28.45557             4.60189            21.97779             1.49643             1.30583            28.37447             1.29966             1.22402             2.78018             2.36270             2.62218             1.68665             1.36382            20.54578             7.69380             1.40301             1.73232             5.02318            23.21138            18.00568             1.98991            15.36178            12.97938            21.32027             2.55531             2.47139             1.32729            20.49058            20.61546             4.16951             1.61217            11.07491            12.89652             1.18974             1.18373             1.19552             9.57834            16.58050             3.00507            19.57675            17.75071            16.21588            21.48602             1.36618            20.74991             4.28572            15.46086             1.72767             4.74632             6.94863             1.42935             4.82963            21.17995             3.91792            23.98667            24.03975             1.67121             4.40375             1.66072             1.36203            19.88411             8.52945             1.39328             1.72621            22.90386             2.90615             1.53273             1.29883             9.39443            18.14904             2.01819             2.01862             2.18418             2.21050             1.64964             1.54828             2.28089             1.39769             1.90249            23.26555             1.79065             1.35996             1.64217            23.22042            17.34499            24.11051            14.07583             3.56231            20.27675            29.76657             1.70339             6.82124             9.04921            26.87162            17.61266            11.33435            11.01028            10.31886             9.70792             3.77723             3.16685             3.21712            15.67143            15.51637            25.03147             2.01006            21.40285            12.37046            14.42795            20.75423            18.09638            19.16798             1.70191             6.85817             2.37736             2.08725             1.38240             7.36049             5.45552            14.54417             9.60318             1.34455             2.18834             2.90787             1.64957             1.37656             2.45372             5.29655            14.86196            14.24596            13.15128            12.19352             1.40456            18.23315             1.53074             2.38315            12.47372            10.84307             9.16333             3.14755             3.62158             1.84335             7.05487             1.63104            20.70674             2.51253             1.52565            19.83122             7.75136             5.95919             1.74744            22.63584            23.01656             5.99098             1.51013            14.04084            18.01389             9.20584             2.63509             3.33886             1.23419            15.93784             2.46027             9.57223            17.85837            23.68682            16.69238             4.10116             1.36059             7.38682             5.55639            18.44581             2.84783            25.68089             7.82861             1.49469             4.58128             2.14702             1.61612            14.67398             7.27692             3.02633             8.44483            24.69345             3.13633             1.56673            17.46200             1.50724             2.01019             5.90488             3.43438            22.39873            18.38328            18.20830             2.53217             1.30167            14.27873            22.07971             6.23212             6.71478            25.36865            22.34368            18.47681             1.36452            22.52253             1.56588            12.70503             1.38548            28.87275            22.57822             1.52896            20.06241             2.06791            22.35472             3.96304            20.81279            17.63556            22.05996             7.85475            24.92367            21.17608             2.16583            23.81912             1.21365             3.90513            15.59374            16.08314            23.46677             1.30899            26.91771            18.22525             8.03142             6.97467             1.47857             1.71010             1.30299            15.08584             1.47918            40.32561             1.90267             3.58704             2.38907            24.54463             4.75584             1.49346             1.44197             2.06018            33.20653             1.58990            25.93330             2.16136            17.85665             1.52096             1.38749             1.34915             1.66046             1.30771             1.85236             2.09244             1.55340             1.19683             1.36611             1.89176             2.15733             2.86421             2.50049             3.40001             1.37852             1.65591            24.20979            28.71957             2.62931             8.49066             1.72957            16.49582            10.47383             2.95388            18.34102            24.40234            19.36389            18.54148             1.17899            15.76363             2.67571             2.90264             5.02218            21.67681             2.19946             9.07774             8.35641             4.41396            11.37224            10.82044            20.16232             1.47325            21.02177            20.82767             2.17015             1.78207             1.51430            17.71340            14.53522             6.38647            18.40980            17.79597            14.68174             1.25495            14.35724            22.89284            21.65054            20.68240             1.48887             1.95733             1.23687             1.41249             9.41292             1.62230            18.48674             7.67730             7.82611             1.33066             4.86876            20.66194             1.35705            10.55782            18.35816             1.47406             1.35395             5.22540             6.90543            16.49556             1.58049             1.63761             2.74624            20.72342            20.76462             1.98139            15.17787            14.63140            29.11099             3.60979            19.82109             5.77978            24.39850            13.84039             1.90086            24.47048             1.62342            20.62790            23.71137             2.89556            20.58043            18.83202            21.31843             7.93948            17.79892            17.71844            10.36100             7.53976             3.10057             1.74043            12.81063            18.31759            15.90779            27.00700             1.43337             1.58168             1.77639            16.93395             1.66862            15.96022             1.49546            24.37229            13.30213            25.40346            23.02988             8.01248             4.86278            28.50956            21.30960             8.91983            23.02081             3.31716             1.36150             5.14999            13.69208             5.94757             5.89890             1.89221             1.19844             1.62112            23.74574            22.97881            17.53016             1.75523             3.57973            19.37995            20.51001            17.80182             1.69576             1.46002            15.61793             1.38342            20.50132             1.85627            20.06553            16.22647            14.23360             1.79572             1.39508             1.47572             1.38343             7.17451            24.53544             3.85817             2.16208             1.47798             1.40713             4.24772             1.32135            16.10900             1.55473             9.51434             1.63420             1.58654            15.38153            11.32354             2.59590            18.79132             1.60186             1.73013             3.89673             8.80937             3.93465            11.03717            21.36636             1.84159            18.96230            11.44527            10.44173             8.98661             8.79739             3.64776            17.45303            29.96753            14.66787            17.35257             3.01760             1.25187             1.43928             4.96086             2.71524             7.36598             2.54217             3.40204             3.77342            10.57472             1.39877             1.59650             1.53660            10.47088            17.26353             1.64791             4.17644            10.44215            15.66492             3.72654             3.51373             7.09832             4.27780             1.47948             4.01699             8.24805            33.37266            14.43439             7.00469             1.77464             1.43256             1.50944            17.70283            20.20984            15.98213            24.46110            20.54602             1.30462             2.89444             1.87655             1.66365             1.35639             3.24372             1.60395             1.42566             2.59867            17.23984            20.45903             1.23594             2.53304             1.92942             1.60971             3.23495             6.55392             1.68230            10.44560            15.91072            18.84158            17.23220             3.42508            23.14412             1.38761             1.21698             3.44781            20.70360             2.38304            13.37953             5.76386            20.89861            13.38641             1.34040            24.41892            27.26137             1.95898             2.21520             2.82039            11.85783             4.20722             1.64646             1.57152            19.05598             6.93042             1.61069             1.38567             1.51065             1.34645             1.29798            13.90434             9.75457             1.44169             2.12858             1.77887            23.24018            33.75295            16.47331             1.81015            16.83539            18.69875             4.33111            11.84841            17.11893            21.60515            17.39260             8.32203            16.84743            18.20457            16.49936             1.28730             1.63250            15.15791            20.86157             3.29254            15.88454            15.57471            22.72341            21.78295             5.84525            10.23125            14.61426             1.31044             1.55558             6.47895             1.40166            17.70034            20.71394             1.70974             1.74035            16.27847            11.77893             1.78019             3.60662            20.62323             2.21276            18.34370            12.69507            16.53420             8.03117             8.24996            11.86322             2.01851            15.50367            13.26022            14.50738             1.55074             3.14065            19.94125            18.29506             1.77997             1.42794            21.58929             2.07020            10.06531             1.60370            16.31555             2.59478            28.47732             3.93505             3.82658             1.33687             1.53974            10.88593             2.01410             8.03828             6.64577             6.17031            19.03656            16.86258            17.13691             1.23267            19.70286            20.80260             1.42435             1.80170            10.61135            18.03393            12.69629             1.65712             8.59142             4.32720            13.65157             4.30915             1.42416            19.54665            14.48528             1.73443             1.74864            24.66994             1.40917            14.17924            18.87644             2.04187             1.76104            24.37751             9.28882            12.39951             4.43644             1.81378            15.64357             3.95530            22.09777             2.11831            14.38689             2.65429             6.81913             9.32333            15.48010            18.68049             8.90313            14.52572            15.97550             1.83684             1.41279             8.06285            13.19722             1.34679             8.86442            10.86820            13.49403            19.43838             2.75780             1.58968             1.45407             3.38514             1.73963             1.25847            25.26029            20.05734            13.42250             5.02468             1.78360            18.24493            14.46682             4.40739            17.24289             8.22514             1.48125            15.42196             3.09996            18.23360             1.44974            10.66984             7.86341             9.40321             2.05907             1.52668             1.38278             1.35701            13.42114             2.67912            24.82599            15.73251             1.44522             1.38859             1.48001            18.25491             2.21929             1.88020             1.52366             1.40374             1.72384             1.30481             1.59157             9.18236            26.59320            10.51617             1.57328             1.36741             1.59816             1.71597            13.49029            15.07630             3.67917             3.39673            21.20760             1.39852             1.69015            16.77182             1.64858            17.39608            21.75439            19.65625            12.94084             1.38720            18.38318             1.35248            11.72789             9.85134             1.24690            17.40267            13.43868            21.68760             1.53664             1.31500            16.06829            24.30390            14.71532            19.19464             1.87782             1.32223            17.84540            19.34685             8.25235             9.08538             7.33519            12.65560             1.51156             8.61377             8.45993            23.51192             3.18116            14.30661            15.71971             8.93230             1.96359             7.45910            19.67126             9.03957            19.91834             1.54681            13.32230             9.78949            11.70556             8.19596             2.92509            10.69860            22.09731             5.57274            12.87111             5.22947             8.98206             7.43476            13.95470            25.41354             1.46497            14.73446            15.44644            16.55027            12.94068            24.79243            21.98809             8.39117             1.93314             3.00350             9.83427            22.47703             2.03379            20.72956             1.60347             5.32097             1.62766            10.94596             1.85389             3.23383             9.50473             2.01673             4.41485            17.08356             1.33282             1.35933            10.81538             3.66407            13.39382            12.45261             9.43053             3.48702             9.64133             2.68841             7.88074            16.99704             9.74467             1.29977             7.37905             1.65865             1.40838             7.06360             1.40477             1.81986             6.41445             4.05137             9.48933             6.31803             1.72560            15.89071             5.99959            29.03849             8.50211             5.53794            14.43672             8.93887            10.23748             9.44634            11.17897             8.70264             6.57716             7.75570             2.19519             1.92701             1.50376             1.85259             1.88443             1.55242             2.04458             1.55438             1.38751             2.02574             1.77699             8.50464             6.01858            13.77150             4.26506             8.38779             4.37542            13.05714             1.26433            16.36731             3.69872             9.61768             4.65307             6.83561            11.50785             1.96934             6.78400            16.29527            19.45848            14.19642             5.28963             3.98757             7.97252             2.41422            18.95576             2.72623             7.72550             2.93223             2.16671             9.25157             2.21440             2.92190             2.73351             2.75065             5.10716             2.43923             2.61337             1.87915             2.02900             1.93897  